   6    6    1    2
 1.0751943e+004  2.1690612e-009  2.1690586e-009  2.2853035e-009  5.0000000e-016
           1.000000e-004
  CAR
 DOS and projected DOS file by LOBSTER. Energy is shifted such that the Fermi level lies at 0 eV. 
      1.35924851     -19.73221778 10000      -6.66896638       1.00000000
-13.06325   0.00000   0.00000   0.00000   0.00000
-13.06114   0.00000   0.00000   0.00000   0.00000
-13.05903   0.00000   0.00000   0.00000   0.00000
-13.05692   0.00000   0.00000   0.00000   0.00000
-13.05481   0.00000   0.00000   0.00000   0.00000
-13.05270   0.00000   0.00000   0.00000   0.00000
-13.05060   0.00000   0.00000   0.00000   0.00000
-13.04849   0.00000   0.00000   0.00000   0.00000
-13.04638   0.00000   0.00000   0.00000   0.00000
-13.04427   0.00000   0.00000   0.00000   0.00000
-13.04216   0.00000   0.00000   0.00000   0.00000
-13.04005   0.00000   0.00000   0.00000   0.00000
-13.03794   0.00000   0.00000   0.00000   0.00000
-13.03583   0.00000   0.00000   0.00000   0.00000
-13.03372   0.00000   0.00000   0.00000   0.00000
-13.03161   0.00000   0.00000   0.00000   0.00000
-13.02950   0.00000   0.00000   0.00000   0.00000
-13.02739   0.00000   0.00000   0.00000   0.00000
-13.02528   0.00000   0.00000   0.00000   0.00000
-13.02317   0.00000   0.00000   0.00000   0.00000
-13.02106   0.00000   0.00000   0.00000   0.00000
-13.01895   0.00000   0.00000   0.00000   0.00000
-13.01685   0.00000   0.00000   0.00000   0.00000
-13.01474   0.00000   0.00000   0.00000   0.00000
-13.01263   0.00000   0.00000   0.00000   0.00000
-13.01052   0.00000   0.00000   0.00000   0.00000
-13.00841   0.00000   0.00000   0.00000   0.00000
-13.00630   0.00000   0.00000   0.00000   0.00000
-13.00419   0.00000   0.00000   0.00000   0.00000
-13.00208   0.00000   0.00000   0.00000   0.00000
-12.99997   0.00000   0.00000   0.00000   0.00000
-12.99786   0.00000   0.00000   0.00000   0.00000
-12.99575   0.00000   0.00000   0.00000   0.00000
-12.99364   0.00000   0.00000   0.00000   0.00000
-12.99153   0.00000   0.00000   0.00000   0.00000
-12.98942   0.00000   0.00000   0.00000   0.00000
-12.98731   0.00000   0.00000   0.00000   0.00000
-12.98521   0.00000   0.00000   0.00000   0.00000
-12.98310   0.00000   0.00000   0.00000   0.00000
-12.98099   0.00000   0.00000   0.00000   0.00000
-12.97888   0.00000   0.00000   0.00000   0.00000
-12.97677   0.00000   0.00000   0.00000   0.00000
-12.97466   0.00000   0.00000   0.00000   0.00000
-12.97255   0.00000   0.00000   0.00000   0.00000
-12.97044   0.00000   0.00000   0.00000   0.00000
-12.96833   0.00000   0.00000   0.00000   0.00000
-12.96622   0.00000   0.00000   0.00000   0.00000
-12.96411   0.00000   0.00000   0.00000   0.00000
-12.96200   0.00000   0.00000   0.00000   0.00000
-12.95989   0.00000   0.00000   0.00000   0.00000
-12.95778   0.00000   0.00000   0.00000   0.00000
-12.95567   0.00000   0.00000   0.00000   0.00000
-12.95356   0.00000   0.00000   0.00000   0.00000
-12.95146   0.00000   0.00000   0.00000   0.00000
-12.94935   0.00000   0.00000   0.00000   0.00000
-12.94724   0.00000   0.00000   0.00000   0.00000
-12.94513   0.00000   0.00000   0.00000   0.00000
-12.94302   0.00000   0.00000   0.00000   0.00000
-12.94091   0.00000   0.00000   0.00000   0.00000
-12.93880   0.00000   0.00000   0.00000   0.00000
-12.93669   0.00000   0.00000   0.00000   0.00000
-12.93458   0.00000   0.00000   0.00000   0.00000
-12.93247   0.00000   0.00000   0.00000   0.00000
-12.93036   0.00000   0.00000   0.00000   0.00000
-12.92825   0.00000   0.00000   0.00000   0.00000
-12.92614   0.00000   0.00000   0.00000   0.00000
-12.92403   0.00000   0.00000   0.00000   0.00000
-12.92192   0.00000   0.00000   0.00000   0.00000
-12.91982   0.00000   0.00000   0.00000   0.00000
-12.91771   0.00000   0.00000   0.00000   0.00000
-12.91560   0.00000   0.00000   0.00000   0.00000
-12.91349   0.00000   0.00000   0.00000   0.00000
-12.91138   0.00000   0.00000   0.00000   0.00000
-12.90927   0.00000   0.00000   0.00000   0.00000
-12.90716   0.00000   0.00000   0.00000   0.00000
-12.90505   0.00000   0.00000   0.00000   0.00000
-12.90294   0.00000   0.00000   0.00000   0.00000
-12.90083   0.00000   0.00000   0.00000   0.00000
-12.89872   0.00000   0.00000   0.00000   0.00000
-12.89661   0.00000   0.00000   0.00000   0.00000
-12.89450   0.00000   0.00000   0.00000   0.00000
-12.89239   0.00000   0.00000   0.00000   0.00000
-12.89028   0.00000   0.00000   0.00000   0.00000
-12.88817   0.00000   0.00000   0.00000   0.00000
-12.88607   0.00000   0.00000   0.00000   0.00000
-12.88396   0.00000   0.00000   0.00000   0.00000
-12.88185   0.00000   0.00000   0.00000   0.00000
-12.87974   0.00000   0.00000   0.00000   0.00000
-12.87763   0.00000   0.00000   0.00000   0.00000
-12.87552   0.00000   0.00000   0.00000   0.00000
-12.87341   0.00000   0.00000   0.00000   0.00000
-12.87130   0.00000   0.00000   0.00000   0.00000
-12.86919   0.00000   0.00000   0.00000   0.00000
-12.86708   0.00000   0.00000   0.00000   0.00000
-12.86497   0.00000   0.00000   0.00000   0.00000
-12.86286   0.00000   0.00000   0.00000   0.00000
-12.86075   0.00000   0.00000   0.00000   0.00000
-12.85864   0.00000   0.00000   0.00000   0.00000
-12.85653   0.00000   0.00000   0.00000   0.00000
-12.85443   0.00000   0.00000   0.00000   0.00000
-12.85232   0.00000   0.00000   0.00000   0.00000
-12.85021   0.00000   0.00000   0.00000   0.00000
-12.84810   0.00000   0.00000   0.00000   0.00000
-12.84599   0.00000   0.00000   0.00000   0.00000
-12.84388   0.00000   0.00000   0.00000   0.00000
-12.84177   0.00000   0.00000   0.00000   0.00000
-12.83966   0.00000   0.00000   0.00000   0.00000
-12.83755   0.00000   0.00000   0.00000   0.00000
-12.83544   0.00000   0.00000   0.00000   0.00000
-12.83333   0.00000   0.00000   0.00000   0.00000
-12.83122   0.00000   0.00000   0.00000   0.00000
-12.82911   0.00000   0.00000   0.00000   0.00000
-12.82700   0.00000   0.00000   0.00000   0.00000
-12.82489   0.00000   0.00000   0.00000   0.00000
-12.82278   0.00000   0.00000   0.00000   0.00000
-12.82068   0.00000   0.00000   0.00000   0.00000
-12.81857   0.00000   0.00000   0.00000   0.00000
-12.81646   0.00000   0.00000   0.00000   0.00000
-12.81435   0.00000   0.00000   0.00000   0.00000
-12.81224   0.00000   0.00000   0.00000   0.00000
-12.81013   0.00000   0.00000   0.00000   0.00000
-12.80802   0.00000   0.00000   0.00000   0.00000
-12.80591   0.00000   0.00000   0.00000   0.00000
-12.80380   0.00000   0.00000   0.00000   0.00000
-12.80169   0.00000   0.00000   0.00000   0.00000
-12.79958   0.00000   0.00000   0.00000   0.00000
-12.79747   0.00000   0.00000   0.00000   0.00000
-12.79536   0.00000   0.00000   0.00000   0.00000
-12.79325   0.00000   0.00000   0.00000   0.00000
-12.79114   0.00000   0.00000   0.00000   0.00000
-12.78903   0.00000   0.00000   0.00000   0.00000
-12.78693   0.00000   0.00000   0.00000   0.00000
-12.78482   0.00000   0.00000   0.00000   0.00000
-12.78271   0.00000   0.00000   0.00000   0.00000
-12.78060   0.00000   0.00000   0.00000   0.00000
-12.77849   0.00000   0.00000   0.00000   0.00000
-12.77638   0.00000   0.00000   0.00000   0.00000
-12.77427   0.00000   0.00000   0.00000   0.00000
-12.77216   0.00000   0.00000   0.00000   0.00000
-12.77005   0.00000   0.00000   0.00000   0.00000
-12.76794   0.00000   0.00000   0.00000   0.00000
-12.76583   0.00000   0.00000   0.00000   0.00000
-12.76372   0.00000   0.00000   0.00000   0.00000
-12.76161   0.00000   0.00000   0.00000   0.00000
-12.75950   0.00000   0.00000   0.00000   0.00000
-12.75739   0.00000   0.00000   0.00000   0.00000
-12.75529   0.00000   0.00000   0.00000   0.00000
-12.75318   0.00000   0.00000   0.00000   0.00000
-12.75107   0.00000   0.00000   0.00000   0.00000
-12.74896   0.00000   0.00000   0.00000   0.00000
-12.74685   0.00000   0.00000   0.00000   0.00000
-12.74474   0.00000   0.00000   0.00000   0.00000
-12.74263   0.00000   0.00000   0.00000   0.00000
-12.74052   0.00000   0.00000   0.00000   0.00000
-12.73841   0.00000   0.00000   0.00000   0.00000
-12.73630   0.00000   0.00000   0.00000   0.00000
-12.73419   0.00000   0.00000   0.00000   0.00000
-12.73208   0.00000   0.00000   0.00000   0.00000
-12.72997   0.00000   0.00000   0.00000   0.00000
-12.72786   0.00000   0.00000   0.00000   0.00000
-12.72575   0.00000   0.00000   0.00000   0.00000
-12.72364   0.00000   0.00000   0.00000   0.00000
-12.72154   0.00000   0.00000   0.00000   0.00000
-12.71943   0.00000   0.00000   0.00000   0.00000
-12.71732   0.00000   0.00000   0.00000   0.00000
-12.71521   0.00000   0.00000   0.00000   0.00000
-12.71310   0.00000   0.00000   0.00000   0.00000
-12.71099   0.00000   0.00000   0.00000   0.00000
-12.70888   0.00000   0.00000   0.00000   0.00000
-12.70677   0.00000   0.00000   0.00000   0.00000
-12.70466   0.00000   0.00000   0.00000   0.00000
-12.70255   0.00000   0.00000   0.00000   0.00000
-12.70044   0.00000   0.00000   0.00000   0.00000
-12.69833   0.00000   0.00000   0.00000   0.00000
-12.69622   0.00000   0.00000   0.00000   0.00000
-12.69411   0.00000   0.00000   0.00000   0.00000
-12.69200   0.00000   0.00000   0.00000   0.00000
-12.68990   0.00000   0.00000   0.00000   0.00000
-12.68779   0.00000   0.00000   0.00000   0.00000
-12.68568   0.00000   0.00000   0.00000   0.00000
-12.68357   0.00000   0.00000   0.00000   0.00000
-12.68146   0.00000   0.00000   0.00000   0.00000
-12.67935   0.00000   0.00000   0.00000   0.00000
-12.67724   0.00000   0.00000   0.00000   0.00000
-12.67513   0.00000   0.00000   0.00000   0.00000
-12.67302   0.00000   0.00000   0.00000   0.00000
-12.67091   0.00000   0.00000   0.00000   0.00000
-12.66880   0.00000   0.00000   0.00000   0.00000
-12.66669   0.00000   0.00000   0.00000   0.00000
-12.66458   0.00000   0.00000   0.00000   0.00000
-12.66247   0.00000   0.00000   0.00000   0.00000
-12.66036   0.00000   0.00000   0.00000   0.00000
-12.65825   0.00000   0.00000   0.00000   0.00000
-12.65615   0.00000   0.00000   0.00000   0.00000
-12.65404   0.00000   0.00000   0.00000   0.00000
-12.65193   0.00000   0.00000   0.00000   0.00000
-12.64982   0.00000   0.00000   0.00000   0.00000
-12.64771   0.00000   0.00000   0.00000   0.00000
-12.64560   0.00000   0.00000   0.00000   0.00000
-12.64349   0.00000   0.00000   0.00000   0.00000
-12.64138   0.00000   0.00000   0.00000   0.00000
-12.63927   0.00000   0.00000   0.00000   0.00000
-12.63716   0.00000   0.00000   0.00000   0.00000
-12.63505   0.00000   0.00000   0.00000   0.00000
-12.63294   0.00000   0.00000   0.00000   0.00000
-12.63083   0.00000   0.00000   0.00000   0.00000
-12.62872   0.00000   0.00000   0.00000   0.00000
-12.62661   0.00000   0.00000   0.00000   0.00000
-12.62451   0.00000   0.00000   0.00000   0.00000
-12.62240   0.00000   0.00000   0.00000   0.00000
-12.62029   0.00000   0.00000   0.00000   0.00000
-12.61818   0.00000   0.00000   0.00000   0.00000
-12.61607   0.00000   0.00000   0.00000   0.00000
-12.61396   0.00000   0.00000   0.00000   0.00000
-12.61185   0.00000   0.00000   0.00000   0.00000
-12.60974   0.00000   0.00000   0.00000   0.00000
-12.60763   0.00000   0.00000   0.00000   0.00000
-12.60552   0.00000   0.00000   0.00000   0.00000
-12.60341   0.00000   0.00000   0.00000   0.00000
-12.60130   0.00000   0.00000   0.00000   0.00000
-12.59919   0.00000   0.00000   0.00000   0.00000
-12.59708   0.00000   0.00000   0.00000   0.00000
-12.59497   0.00000   0.00000   0.00000   0.00000
-12.59286   0.00000   0.00000   0.00000   0.00000
-12.59076   0.00000   0.00000   0.00000   0.00000
-12.58865   0.00000   0.00000   0.00000   0.00000
-12.58654   0.00000   0.00000   0.00000   0.00000
-12.58443   0.00000   0.00000   0.00000   0.00000
-12.58232   0.00000   0.00000   0.00000   0.00000
-12.58021   0.00000   0.00000   0.00000   0.00000
-12.57810   0.00000   0.00000   0.00000   0.00000
-12.57599   0.00000   0.00000   0.00000   0.00000
-12.57388   0.00000   0.00000   0.00000   0.00000
-12.57177   0.00000   0.00000   0.00000   0.00000
-12.56966   0.00000   0.00000   0.00000   0.00000
-12.56755   0.00000   0.00000   0.00000   0.00000
-12.56544   0.00000   0.00000   0.00000   0.00000
-12.56333   0.00000   0.00000   0.00000   0.00000
-12.56122   0.00000   0.00000   0.00000   0.00000
-12.55911   0.00000   0.00000   0.00000   0.00000
-12.55701   0.00000   0.00000   0.00000   0.00000
-12.55490   0.00000   0.00000   0.00000   0.00000
-12.55279   0.00000   0.00000   0.00000   0.00000
-12.55068   0.00000   0.00000   0.00000   0.00000
-12.54857   0.00000   0.00000   0.00000   0.00000
-12.54646   0.00000   0.00000   0.00000   0.00000
-12.54435   0.00000   0.00000   0.00000   0.00000
-12.54224   0.00000   0.00000   0.00000   0.00000
-12.54013   0.00000   0.00000   0.00000   0.00000
-12.53802   0.00000   0.00000   0.00000   0.00000
-12.53591   0.00000   0.00000   0.00000   0.00000
-12.53380   0.00000   0.00000   0.00000   0.00000
-12.53169   0.00000   0.00000   0.00000   0.00000
-12.52958   0.00000   0.00000   0.00000   0.00000
-12.52747   0.00000   0.00000   0.00000   0.00000
-12.52537   0.00000   0.00000   0.00000   0.00000
-12.52326   0.00000   0.00000   0.00000   0.00000
-12.52115   0.00000   0.00000   0.00000   0.00000
-12.51904   0.00000   0.00000   0.00000   0.00000
-12.51693   0.00000   0.00000   0.00000   0.00000
-12.51482   0.00000   0.00000   0.00000   0.00000
-12.51271   0.00000   0.00000   0.00000   0.00000
-12.51060   0.00000   0.00000   0.00000   0.00000
-12.50849   0.00000   0.00000   0.00000   0.00000
-12.50638   0.00000   0.00000   0.00000   0.00000
-12.50427   0.00000   0.00000   0.00000   0.00000
-12.50216   0.00000   0.00000   0.00000   0.00000
-12.50005   0.00000   0.00000   0.00000   0.00000
-12.49794   0.00000   0.00000   0.00000   0.00000
-12.49583   0.00000   0.00000   0.00000   0.00000
-12.49372   0.00000   0.00000   0.00000   0.00000
-12.49162   0.00000   0.00000   0.00000   0.00000
-12.48951   0.00000   0.00000   0.00000   0.00000
-12.48740   0.00000   0.00000   0.00000   0.00000
-12.48529   0.00000   0.00000   0.00000   0.00000
-12.48318   0.00000   0.00000   0.00000   0.00000
-12.48107   0.00000   0.00000   0.00000   0.00000
-12.47896   0.00000   0.00000   0.00000   0.00000
-12.47685   0.00000   0.00000   0.00000   0.00000
-12.47474   0.00000   0.00000   0.00000   0.00000
-12.47263   0.00000   0.00000   0.00000   0.00000
-12.47052   0.00000   0.00000   0.00000   0.00000
-12.46841   0.00000   0.00000   0.00000   0.00000
-12.46630   0.00000   0.00000   0.00000   0.00000
-12.46419   0.00000   0.00000   0.00000   0.00000
-12.46208   0.00000   0.00000   0.00000   0.00000
-12.45998   0.00000   0.00000   0.00000   0.00000
-12.45787   0.00000   0.00000   0.00000   0.00000
-12.45576   0.00000   0.00000   0.00000   0.00000
-12.45365   0.00000   0.00000   0.00000   0.00000
-12.45154   0.00000   0.00000   0.00000   0.00000
-12.44943   0.00000   0.00000   0.00000   0.00000
-12.44732   0.00000   0.00000   0.00000   0.00000
-12.44521   0.00000   0.00000   0.00000   0.00000
-12.44310   0.00000   0.00000   0.00000   0.00000
-12.44099   0.00000   0.00000   0.00000   0.00000
-12.43888   0.00000   0.00000   0.00000   0.00000
-12.43677   0.00000   0.00000   0.00000   0.00000
-12.43466   0.00000   0.00000   0.00000   0.00000
-12.43255   0.00000   0.00000   0.00000   0.00000
-12.43044   0.00000   0.00000   0.00000   0.00000
-12.42833   0.00000   0.00000   0.00000   0.00000
-12.42623   0.00000   0.00000   0.00000   0.00000
-12.42412   0.00000   0.00000   0.00000   0.00000
-12.42201   0.00000   0.00000   0.00000   0.00000
-12.41990   0.00000   0.00000   0.00000   0.00000
-12.41779   0.00000   0.00000   0.00000   0.00000
-12.41568   0.00000   0.00000   0.00000   0.00000
-12.41357   0.00000   0.00000   0.00000   0.00000
-12.41146   0.00000   0.00000   0.00000   0.00000
-12.40935   0.00000   0.00000   0.00000   0.00000
-12.40724   0.00000   0.00000   0.00000   0.00000
-12.40513   0.00000   0.00000   0.00000   0.00000
-12.40302   0.00000   0.00000   0.00000   0.00000
-12.40091   0.00000   0.00000   0.00000   0.00000
-12.39880   0.00000   0.00000   0.00000   0.00000
-12.39669   0.00000   0.00000   0.00000   0.00000
-12.39459   0.00000   0.00000   0.00000   0.00000
-12.39248   0.00000   0.00000   0.00000   0.00000
-12.39037   0.00000   0.00000   0.00000   0.00000
-12.38826   0.00000   0.00000   0.00000   0.00000
-12.38615   0.00000   0.00000   0.00000   0.00000
-12.38404   0.00000   0.00000   0.00000   0.00000
-12.38193   0.00000   0.00000   0.00000   0.00000
-12.37982   0.00000   0.00000   0.00000   0.00000
-12.37771   0.00000   0.00000   0.00000   0.00000
-12.37560   0.00000   0.00000   0.00000   0.00000
-12.37349   0.00000   0.00000   0.00000   0.00000
-12.37138   0.00000   0.00000   0.00000   0.00000
-12.36927   0.00000   0.00000   0.00000   0.00000
-12.36716   0.00000   0.00000   0.00000   0.00000
-12.36505   0.00000   0.00000   0.00000   0.00000
-12.36294   0.00000   0.00000   0.00000   0.00000
-12.36084   0.00000   0.00000   0.00000   0.00000
-12.35873   0.00000   0.00000   0.00000   0.00000
-12.35662   0.00000   0.00000   0.00000   0.00000
-12.35451   0.00000   0.00000   0.00000   0.00000
-12.35240   0.00000   0.00000   0.00000   0.00000
-12.35029   0.00000   0.00000   0.00000   0.00000
-12.34818   0.00000   0.00000   0.00000   0.00000
-12.34607   0.00000   0.00000   0.00000   0.00000
-12.34396   0.00000   0.00000   0.00000   0.00000
-12.34185   0.00000   0.00000   0.00000   0.00000
-12.33974   0.00000   0.00000   0.00000   0.00000
-12.33763   0.00000   0.00000   0.00000   0.00000
-12.33552   0.00000   0.00000   0.00000   0.00000
-12.33341   0.00000   0.00000   0.00000   0.00000
-12.33130   0.00000   0.00000   0.00000   0.00000
-12.32919   0.00000   0.00000   0.00000   0.00000
-12.32709   0.00000   0.00000   0.00000   0.00000
-12.32498   0.00000   0.00000   0.00000   0.00000
-12.32287   0.00000   0.00000   0.00000   0.00000
-12.32076   0.00000   0.00000   0.00000   0.00000
-12.31865   0.00000   0.00000   0.00000   0.00000
-12.31654   0.00000   0.00000   0.00000   0.00000
-12.31443   0.00000   0.00000   0.00000   0.00000
-12.31232   0.00000   0.00000   0.00000   0.00000
-12.31021   0.00000   0.00000   0.00000   0.00000
-12.30810   0.00000   0.00000   0.00000   0.00000
-12.30599   0.00000   0.00000   0.00000   0.00000
-12.30388   0.00000   0.00000   0.00000   0.00000
-12.30177   0.00000   0.00000   0.00000   0.00000
-12.29966   0.00000   0.00000   0.00000   0.00000
-12.29755   0.00000   0.00000   0.00000   0.00000
-12.29545   0.00000   0.00000   0.00000   0.00000
-12.29334   0.00000   0.00000   0.00000   0.00000
-12.29123   0.00000   0.00000   0.00000   0.00000
-12.28912   0.00000   0.00000   0.00000   0.00000
-12.28701   0.00000   0.00000   0.00000   0.00000
-12.28490   0.00000   0.00000   0.00000   0.00000
-12.28279   0.00000   0.00000   0.00000   0.00000
-12.28068   0.00000   0.00000   0.00000   0.00000
-12.27857   0.00000   0.00000   0.00000   0.00000
-12.27646   0.00000   0.00000   0.00000   0.00000
-12.27435   0.00000   0.00000   0.00000   0.00000
-12.27224   0.00000   0.00000   0.00000   0.00000
-12.27013   0.00000   0.00000   0.00000   0.00000
-12.26802   0.00000   0.00000   0.00000   0.00000
-12.26591   0.00000   0.00000   0.00000   0.00000
-12.26380   0.00000   0.00000   0.00000   0.00000
-12.26170   0.00000   0.00000   0.00000   0.00000
-12.25959   0.00000   0.00000   0.00000   0.00000
-12.25748   0.00000   0.00000   0.00000   0.00000
-12.25537   0.00000   0.00000   0.00000   0.00000
-12.25326   0.00000   0.00000   0.00000   0.00000
-12.25115   0.00000   0.00000   0.00000   0.00000
-12.24904   0.00000   0.00000   0.00000   0.00000
-12.24693   0.00000   0.00000   0.00000   0.00000
-12.24482   0.00000   0.00000   0.00000   0.00000
-12.24271   0.00000   0.00000   0.00000   0.00000
-12.24060   0.00000   0.00000   0.00000   0.00000
-12.23849   0.00000   0.00000   0.00000   0.00000
-12.23638   0.00000   0.00000   0.00000   0.00000
-12.23427   0.00000   0.00000   0.00000   0.00000
-12.23216   0.00000   0.00000   0.00000   0.00000
-12.23006   0.00000   0.00000   0.00000   0.00000
-12.22795   0.00000   0.00000   0.00000   0.00000
-12.22584   0.00000   0.00000   0.00000   0.00000
-12.22373   0.00000   0.00000   0.00000   0.00000
-12.22162   0.00000   0.00000   0.00000   0.00000
-12.21951   0.00000   0.00000   0.00000   0.00000
-12.21740   0.00000   0.00000   0.00000   0.00000
-12.21529   0.00000   0.00000   0.00000   0.00000
-12.21318   0.00000   0.00000   0.00000   0.00000
-12.21107   0.00000   0.00000   0.00000   0.00000
-12.20896   0.00000   0.00000   0.00000   0.00000
-12.20685   0.00000   0.00000   0.00000   0.00000
-12.20474   0.00000   0.00000   0.00000   0.00000
-12.20263   0.00000   0.00000   0.00000   0.00000
-12.20052   0.00000   0.00000   0.00000   0.00000
-12.19841   0.00000   0.00000   0.00000   0.00000
-12.19631   0.00000   0.00000   0.00000   0.00000
-12.19420   0.00000   0.00000   0.00000   0.00000
-12.19209   0.00000   0.00000   0.00000   0.00000
-12.18998   0.00000   0.00000   0.00000   0.00000
-12.18787   0.00000   0.00000   0.00000   0.00000
-12.18576   0.00000   0.00000   0.00000   0.00000
-12.18365   0.00000   0.00000   0.00000   0.00000
-12.18154   0.00000   0.00000   0.00000   0.00000
-12.17943   0.00000   0.00000   0.00000   0.00000
-12.17732   0.00000   0.00000   0.00000   0.00000
-12.17521   0.00000   0.00000   0.00000   0.00000
-12.17310   0.00000   0.00000   0.00000   0.00000
-12.17099   0.00000   0.00000   0.00000   0.00000
-12.16888   0.00000   0.00000   0.00000   0.00000
-12.16677   0.00000   0.00000   0.00000   0.00000
-12.16467   0.00000   0.00000   0.00000   0.00000
-12.16256   0.00000   0.00000   0.00000   0.00000
-12.16045   0.00000   0.00000   0.00000   0.00000
-12.15834   0.00000   0.00000   0.00000   0.00000
-12.15623   0.00000   0.00000   0.00000   0.00000
-12.15412   0.00000   0.00000   0.00000   0.00000
-12.15201   0.00000   0.00000   0.00000   0.00000
-12.14990   0.00000   0.00000   0.00000   0.00000
-12.14779   0.00000   0.00000   0.00000   0.00000
-12.14568   0.00000   0.00000   0.00000   0.00000
-12.14357   0.00000   0.00000   0.00000   0.00000
-12.14146   0.00000   0.00000   0.00000   0.00000
-12.13935   0.00000   0.00000   0.00000   0.00000
-12.13724   0.00000   0.00000   0.00000   0.00000
-12.13513   0.00000   0.00000   0.00000   0.00000
-12.13302   0.00000   0.00000   0.00000   0.00000
-12.13092   0.00000   0.00000   0.00000   0.00000
-12.12881   0.00000   0.00000   0.00000   0.00000
-12.12670   0.00000   0.00000   0.00000   0.00000
-12.12459   0.00000   0.00000   0.00000   0.00000
-12.12248   0.00000   0.00000   0.00000   0.00000
-12.12037   0.00000   0.00000   0.00000   0.00000
-12.11826   0.00000   0.00000   0.00000   0.00000
-12.11615   0.00000   0.00000   0.00000   0.00000
-12.11404   0.00001   0.00001   0.00000   0.00000
-12.11193   0.00222   0.00222   0.00000   0.00000
-12.10982   0.13788   0.13788   0.00030   0.00030
-12.10771   3.32871   3.32871   0.00732   0.00732
-12.10560  31.59171  31.59171   0.07396   0.07396
-12.10349 119.21467 119.21467   0.32542   0.32542
-12.10138 180.42924 180.42924   0.70601   0.70601
-12.09927 109.86067 109.86067   0.93775   0.93775
-12.09717  26.81294  26.81294   0.99430   0.99430
-12.09506   2.59951   2.59951   0.99979   0.99979
-12.09295   0.09897   0.09897   1.00000   1.00000
-12.09084   0.00146   0.00146   1.00000   1.00000
-12.08873   0.00001   0.00001   1.00000   1.00000
-12.08662   0.00000   0.00000   1.00000   1.00000
-12.08451   0.00000   0.00000   1.00000   1.00000
-12.08240   0.00000   0.00000   1.00000   1.00000
-12.08029   0.00000   0.00000   1.00000   1.00000
-12.07818   0.00000   0.00000   1.00000   1.00000
-12.07607   0.00000   0.00000   1.00000   1.00000
-12.07396   0.00000   0.00000   1.00000   1.00000
-12.07185   0.00000   0.00000   1.00000   1.00000
-12.06974   0.00000   0.00000   1.00000   1.00000
-12.06763   0.00000   0.00000   1.00000   1.00000
-12.06553   0.00000   0.00000   1.00000   1.00000
-12.06342   0.00000   0.00000   1.00000   1.00000
-12.06131   0.00000   0.00000   1.00000   1.00000
-12.05920   0.00000   0.00000   1.00000   1.00000
-12.05709   0.00000   0.00000   1.00000   1.00000
-12.05498   0.00000   0.00000   1.00000   1.00000
-12.05287   0.00000   0.00000   1.00000   1.00000
-12.05076   0.00000   0.00000   1.00000   1.00000
-12.04865   0.00000   0.00000   1.00000   1.00000
-12.04654   0.00000   0.00000   1.00000   1.00000
-12.04443   0.00000   0.00000   1.00000   1.00000
-12.04232   0.00000   0.00000   1.00000   1.00000
-12.04021   0.00000   0.00000   1.00000   1.00000
-12.03810   0.00000   0.00000   1.00000   1.00000
-12.03599   0.00000   0.00000   1.00000   1.00000
-12.03388   0.00000   0.00000   1.00000   1.00000
-12.03178   0.00000   0.00000   1.00000   1.00000
-12.02967   0.00000   0.00000   1.00000   1.00000
-12.02756   0.00000   0.00000   1.00000   1.00000
-12.02545   0.00000   0.00000   1.00000   1.00000
-12.02334   0.00000   0.00000   1.00000   1.00000
-12.02123   0.00000   0.00000   1.00000   1.00000
-12.01912   0.00000   0.00000   1.00000   1.00000
-12.01701   0.00000   0.00000   1.00000   1.00000
-12.01490   0.00000   0.00000   1.00000   1.00000
-12.01279   0.00000   0.00000   1.00000   1.00000
-12.01068   0.00000   0.00000   1.00000   1.00000
-12.00857   0.00000   0.00000   1.00000   1.00000
-12.00646   0.00000   0.00000   1.00000   1.00000
-12.00435   0.00000   0.00000   1.00000   1.00000
-12.00224   0.00000   0.00000   1.00000   1.00000
-12.00014   0.00000   0.00000   1.00000   1.00000
-11.99803   0.00000   0.00000   1.00000   1.00000
-11.99592   0.00000   0.00000   1.00000   1.00000
-11.99381   0.00000   0.00000   1.00000   1.00000
-11.99170   0.00000   0.00000   1.00000   1.00000
-11.98959   0.00000   0.00000   1.00000   1.00000
-11.98748   0.00000   0.00000   1.00000   1.00000
-11.98537   0.00000   0.00000   1.00000   1.00000
-11.98326   0.00000   0.00000   1.00000   1.00000
-11.98115   0.00000   0.00000   1.00000   1.00000
-11.97904   0.00000   0.00000   1.00000   1.00000
-11.97693   0.00000   0.00000   1.00000   1.00000
-11.97482   0.00000   0.00000   1.00000   1.00000
-11.97271   0.00000   0.00000   1.00000   1.00000
-11.97060   0.00000   0.00000   1.00000   1.00000
-11.96849   0.00000   0.00000   1.00000   1.00000
-11.96639   0.00000   0.00000   1.00000   1.00000
-11.96428   0.00000   0.00000   1.00000   1.00000
-11.96217   0.00000   0.00000   1.00000   1.00000
-11.96006   0.00000   0.00000   1.00000   1.00000
-11.95795   0.00000   0.00000   1.00000   1.00000
-11.95584   0.00000   0.00000   1.00000   1.00000
-11.95373   0.00000   0.00000   1.00000   1.00000
-11.95162   0.00000   0.00000   1.00000   1.00000
-11.94951   0.00000   0.00000   1.00000   1.00000
-11.94740   0.00000   0.00000   1.00000   1.00000
-11.94529   0.00000   0.00000   1.00000   1.00000
-11.94318   0.00000   0.00000   1.00000   1.00000
-11.94107   0.00000   0.00000   1.00000   1.00000
-11.93896   0.00000   0.00000   1.00000   1.00000
-11.93685   0.00000   0.00000   1.00000   1.00000
-11.93475   0.00000   0.00000   1.00000   1.00000
-11.93264   0.00000   0.00000   1.00000   1.00000
-11.93053   0.00000   0.00000   1.00000   1.00000
-11.92842   0.00000   0.00000   1.00000   1.00000
-11.92631   0.00000   0.00000   1.00000   1.00000
-11.92420   0.00000   0.00000   1.00000   1.00000
-11.92209   0.00000   0.00000   1.00000   1.00000
-11.91998   0.00000   0.00000   1.00000   1.00000
-11.91787   0.00000   0.00000   1.00000   1.00000
-11.91576   0.00000   0.00000   1.00000   1.00000
-11.91365   0.00000   0.00000   1.00000   1.00000
-11.91154   0.00000   0.00000   1.00000   1.00000
-11.90943   0.00000   0.00000   1.00000   1.00000
-11.90732   0.00000   0.00000   1.00000   1.00000
-11.90521   0.00000   0.00000   1.00000   1.00000
-11.90310   0.00000   0.00000   1.00000   1.00000
-11.90100   0.00000   0.00000   1.00000   1.00000
-11.89889   0.00000   0.00000   1.00000   1.00000
-11.89678   0.00000   0.00000   1.00000   1.00000
-11.89467   0.00000   0.00000   1.00000   1.00000
-11.89256   0.00000   0.00000   1.00000   1.00000
-11.89045   0.00000   0.00000   1.00000   1.00000
-11.88834   0.00000   0.00000   1.00000   1.00000
-11.88623   0.00000   0.00000   1.00000   1.00000
-11.88412   0.00000   0.00000   1.00000   1.00000
-11.88201   0.00000   0.00000   1.00000   1.00000
-11.87990   0.00000   0.00000   1.00000   1.00000
-11.87779   0.00000   0.00000   1.00000   1.00000
-11.87568   0.00000   0.00000   1.00000   1.00000
-11.87357   0.00000   0.00000   1.00000   1.00000
-11.87146   0.00000   0.00000   1.00000   1.00000
-11.86936   0.00000   0.00000   1.00000   1.00000
-11.86725   0.00000   0.00000   1.00000   1.00000
-11.86514   0.00000   0.00000   1.00000   1.00000
-11.86303   0.00000   0.00000   1.00000   1.00000
-11.86092   0.00000   0.00000   1.00000   1.00000
-11.85881   0.00000   0.00000   1.00000   1.00000
-11.85670   0.00000   0.00000   1.00000   1.00000
-11.85459   0.00000   0.00000   1.00000   1.00000
-11.85248   0.00000   0.00000   1.00000   1.00000
-11.85037   0.00000   0.00000   1.00000   1.00000
-11.84826   0.00000   0.00000   1.00000   1.00000
-11.84615   0.00000   0.00000   1.00000   1.00000
-11.84404   0.00000   0.00000   1.00000   1.00000
-11.84193   0.00000   0.00000   1.00000   1.00000
-11.83982   0.00000   0.00000   1.00000   1.00000
-11.83771   0.00000   0.00000   1.00000   1.00000
-11.83561   0.00000   0.00000   1.00000   1.00000
-11.83350   0.00000   0.00000   1.00000   1.00000
-11.83139   0.00000   0.00000   1.00000   1.00000
-11.82928   0.00000   0.00000   1.00000   1.00000
-11.82717   0.00000   0.00000   1.00000   1.00000
-11.82506   0.00000   0.00000   1.00000   1.00000
-11.82295   0.00000   0.00000   1.00000   1.00000
-11.82084   0.00000   0.00000   1.00000   1.00000
-11.81873   0.00000   0.00000   1.00000   1.00000
-11.81662   0.00000   0.00000   1.00000   1.00000
-11.81451   0.00000   0.00000   1.00000   1.00000